<?xml version="1.0" encoding="UTF-8"?>

<!-- generated on 2025-11-10 18:55:57 by Eclipse SUMO GUI Version 1.21.0
<sumoConfiguration xmlns:xsi="http://www.w3.org/2001/XMLSchema-instance" xsi:noNamespaceSchemaLocation="http://sumo.dlr.de/xsd/sumoConfiguration.xsd">

    <input>
        <net-file value="C:\Users\X1\Documents\SUMO\12th Oct 2025\LinkedIn Project\10th Nov\roundabout1.net.xml"/>
        <route-files value="C:\Users\X1\Documents\SUMO\12th Oct 2025\LinkedIn Project\10th Nov\roundabout_update.rou.xml"/>
    </input>

    <output>
        <summary-output value="C:\Users\X1\Documents\SUMO\12th Oct 2025\LinkedIn Project\10th Nov\summary.xml"/>
        <tripinfo-output value="C:\Users\X1\Documents\SUMO\12th Oct 2025\LinkedIn Project\10th Nov\tripinfo.xml"/>
    </output>

    <time>
        <begin value="0"/>
        <end value="3600"/>
    </time>

    <report>
        <verbose value="true"/>
        <no-step-log value="true"/>
    </report>

    <gui_only>
        <start value="true"/>
    </gui_only>

</sumoConfiguration>
-->

<tripinfos xmlns:xsi="http://www.w3.org/2001/XMLSchema-instance" xsi:noNamespaceSchemaLocation="http://sumo.dlr.de/xsd/tripinfo_file.xsd">
    <tripinfo id="flow_Muscat_car_0.0" depart="0.00" departLane="20910676#0_0" departPos="4.60" departSpeed="0.00" departDelay="0.00" arrival="8.00" arrivalLane="20910676#1_0" arrivalPos="33.23" arrivalSpeed="15.34" duration="8.00" routeLength="63.79" waitingTime="0.00" waitingCount="0" stopTime="0.00" timeLoss="3.86" rerouteNo="0" devices="tripinfo_flow_Muscat_car_0.0 routing_flow_Muscat_car_0.0" vType="car" speedFactor="1.06" vaporized=""/>
    <tripinfo id="flow_Maabilah_car_0.0" depart="7.00" departLane="20910676#0_0" departPos="4.60" departSpeed="0.00" departDelay="7.00" arrival="10.00" arrivalLane="20910676#0_0" arrivalPos="14.03" arrivalSpeed="6.30" duration="3.00" routeLength="9.43" waitingTime="0.00" waitingCount="0" stopTime="0.00" timeLoss="2.22" rerouteNo="1" devices="tripinfo_flow_Maabilah_car_0.0 routing_flow_Maabilah_car_0.0" vType="car" speedFactor="0.83" vaporized=""/>
    <tripinfo id="flow_Barka_rv_0.0" depart="3.00" departLane="20910676#0_0" departPos="6.10" departSpeed="0.00" departDelay="3.00" arrival="14.00" arrivalLane="20910676#1_0" arrivalPos="33.23" arrivalSpeed="12.69" duration="11.00" routeLength="62.29" waitingTime="0.00" waitingCount="0" stopTime="0.00" timeLoss="5.61" rerouteNo="0" devices="tripinfo_flow_Barka_rv_0.0 routing_flow_Barka_rv_0.0" vType="rv" speedFactor="1.03" vaporized=""/>
    <tripinfo id="flow_Muscat_truck_0.0" depart="10.00" departLane="20910676#0_0" departPos="14.03" departSpeed="0.00" departDelay="10.00" arrival="22.00" arrivalLane="20910676#1_0" arrivalPos="33.23" arrivalSpeed="8.71" duration="12.00" routeLength="54.36" waitingTime="0.00" waitingCount="0" stopTime="0.00" timeLoss="7.84" rerouteNo="0" devices="tripinfo_flow_Muscat_truck_0.0 routing_flow_Muscat_truck_0.0" vType="truck" speedFactor="0.94" vaporized=""/>
    <tripinfo id="flow_Muscat_bus_0.0" depart="16.00" departLane="20910676#0_0" departPos="12.10" departSpeed="0.00" departDelay="16.00" arrival="28.00" arrivalLane="20910676#1_0" arrivalPos="33.23" arrivalSpeed="10.38" duration="12.00" routeLength="56.29" waitingTime="0.00" waitingCount="0" stopTime="0.00" timeLoss="7.29" rerouteNo="0" devices="tripinfo_flow_Muscat_bus_0.0 routing_flow_Muscat_bus_0.0" vType="bus" speedFactor="1.01" vaporized=""/>
    <tripinfo id="flow_Barka_rv_0.1" depart="20.00" departLane="20910676#0_0" departPos="6.10" departSpeed="0.00" departDelay="4.48" arrival="32.00" arrivalLane="20910676#1_0" arrivalPos="33.23" arrivalSpeed="11.15" duration="12.00" routeLength="62.29" waitingTime="1.00" waitingCount="1" stopTime="0.00" timeLoss="7.19" rerouteNo="0" devices="tripinfo_flow_Barka_rv_0.1 routing_flow_Barka_rv_0.1" vType="rv" speedFactor="0.99" vaporized=""/>
    <tripinfo id="flow_Maabilah_bus_0.0" depart="31.00" departLane="20910676#0_0" departPos="12.10" departSpeed="0.00" departDelay="31.00" arrival="33.00" arrivalLane="20910676#0_0" arrivalPos="14.03" arrivalSpeed="1.88" duration="2.00" routeLength="1.93" waitingTime="0.00" waitingCount="0" stopTime="0.00" timeLoss="1.78" rerouteNo="1" devices="tripinfo_flow_Maabilah_bus_0.0 routing_flow_Maabilah_bus_0.0" vType="bus" speedFactor="1.05" vaporized=""/>
    <tripinfo id="flow_Barka_bus_0.0" depart="26.00" departLane="20910676#0_0" departPos="12.10" departSpeed="0.00" departDelay="26.00" arrival="37.00" arrivalLane="20910676#1_0" arrivalPos="33.23" arrivalSpeed="9.52" duration="11.00" routeLength="56.29" waitingTime="0.00" waitingCount="0" stopTime="0.00" timeLoss="6.74" rerouteNo="0" devices="tripinfo_flow_Barka_bus_0.0 routing_flow_Barka_bus_0.0" vType="bus" speedFactor="1.08" vaporized=""/>
    <tripinfo id="flow_Maabilah_bus_0.1" depart="36.00" departLane="20910676#0_0" departPos="12.10" departSpeed="0.00" departDelay="32.33" arrival="38.00" arrivalLane="20910676#0_0" arrivalPos="14.03" arrivalSpeed="2.29" duration="2.00" routeLength="1.93" waitingTime="0.00" waitingCount="0" stopTime="0.00" timeLoss="1.75" rerouteNo="1" devices="tripinfo_flow_Maabilah_bus_0.1 routing_flow_Maabilah_bus_0.1" vType="bus" speedFactor="0.94" vaporized=""/>
    <tripinfo id="flow_Maabilah_bus_0.2" depart="40.00" departLane="20910676#0_0" departPos="12.10" departSpeed="0.00" departDelay="32.65" arrival="42.00" arrivalLane="20910676#0_0" arrivalPos="14.03" arrivalSpeed="1.92" duration="2.00" routeLength="1.93" waitingTime="0.00" waitingCount="0" stopTime="0.00" timeLoss="1.79" rerouteNo="1" devices="tripinfo_flow_Maabilah_bus_0.2 routing_flow_Maabilah_bus_0.2" vType="bus" speedFactor="1.09" vaporized=""/>
    <tripinfo id="flow_Maabilah_bus_0.3" depart="46.00" departLane="20910676#0_0" departPos="12.10" departSpeed="0.00" departDelay="34.98" arrival="48.00" arrivalLane="20910676#0_0" arrivalPos="14.03" arrivalSpeed="1.82" duration="2.00" routeLength="1.93" waitingTime="0.00" waitingCount="0" stopTime="0.00" timeLoss="1.80" rerouteNo="1" devices="tripinfo_flow_Maabilah_bus_0.3 routing_flow_Maabilah_bus_0.3" vType="bus" speedFactor="1.05" vaporized=""/>
    <tripinfo id="flow_Maabilah_bus_0.4" depart="48.00" departLane="20910676#0_0" departPos="12.10" departSpeed="0.00" departDelay="33.31" arrival="50.00" arrivalLane="20910676#0_0" arrivalPos="14.03" arrivalSpeed="1.30" duration="2.00" routeLength="1.93" waitingTime="0.00" waitingCount="0" stopTime="0.00" timeLoss="1.86" rerouteNo="1" devices="tripinfo_flow_Maabilah_bus_0.4 routing_flow_Maabilah_bus_0.4" vType="bus" speedFactor="1.12" vaporized=""/>
    <tripinfo id="flow_Muscat_truck_0.1" depart="38.00" departLane="20910676#0_0" departPos="14.03" departSpeed="0.00" departDelay="32.51" arrival="51.00" arrivalLane="20910676#1_1" arrivalPos="33.23" arrivalSpeed="8.83" duration="13.00" routeLength="54.36" waitingTime="0.00" waitingCount="0" stopTime="0.00" timeLoss="8.52" rerouteNo="0" devices="tripinfo_flow_Muscat_truck_0.1 routing_flow_Muscat_truck_0.1" vType="truck" speedFactor="0.86" vaporized=""/>
    <tripinfo id="flow_Palace_bus_0.0" depart="33.00" departLane="20910676#0_0" departPos="12.10" departSpeed="0.00" departDelay="33.00" arrival="54.00" arrivalLane="20910676#4_1" arrivalPos="27.41" arrivalSpeed="13.51" duration="21.00" routeLength="183.10" waitingTime="0.00" waitingCount="0" stopTime="0.00" timeLoss="7.65" rerouteNo="1" devices="tripinfo_flow_Palace_bus_0.0 routing_flow_Palace_bus_0.0" vType="bus" speedFactor="0.89" vaporized=""/>
    <tripinfo id="flow_Maabilah_bus_0.5" depart="52.00" departLane="20910676#0_0" departPos="12.10" departSpeed="0.00" departDelay="33.64" arrival="54.00" arrivalLane="20910676#0_0" arrivalPos="14.03" arrivalSpeed="1.72" duration="2.00" routeLength="1.93" waitingTime="0.00" waitingCount="0" stopTime="0.00" timeLoss="1.79" rerouteNo="1" devices="tripinfo_flow_Maabilah_bus_0.5 routing_flow_Maabilah_bus_0.5" vType="bus" speedFactor="0.88" vaporized=""/>
    <tripinfo id="flow_Muscat_truck_0.2" depart="42.00" departLane="20910676#0_0" departPos="14.03" departSpeed="0.00" departDelay="31.03" arrival="56.00" arrivalLane="20910676#1_1" arrivalPos="33.23" arrivalSpeed="8.26" duration="14.00" routeLength="54.36" waitingTime="0.00" waitingCount="0" stopTime="0.00" timeLoss="10.04" rerouteNo="0" devices="tripinfo_flow_Muscat_truck_0.2 routing_flow_Muscat_truck_0.2" vType="truck" speedFactor="1.03" vaporized=""/>
    <tripinfo id="flow_Maabilah_bus_0.6" depart="58.00" departLane="20910676#0_0" departPos="12.10" departSpeed="0.00" departDelay="35.96" arrival="60.00" arrivalLane="20910676#0_0" arrivalPos="14.03" arrivalSpeed="2.17" duration="2.00" routeLength="1.93" waitingTime="0.00" waitingCount="0" stopTime="0.00" timeLoss="1.77" rerouteNo="1" devices="tripinfo_flow_Maabilah_bus_0.6 routing_flow_Maabilah_bus_0.6" vType="bus" speedFactor="0.94" vaporized=""/>
    <tripinfo id="flow_Muscat_truck_0.3" depart="50.00" departLane="20910676#0_0" departPos="14.03" departSpeed="0.00" departDelay="33.54" arrival="62.00" arrivalLane="20910676#1_1" arrivalPos="33.23" arrivalSpeed="9.34" duration="12.00" routeLength="54.36" waitingTime="0.00" waitingCount="0" stopTime="0.00" timeLoss="7.81" rerouteNo="0" devices="tripinfo_flow_Muscat_truck_0.3 routing_flow_Muscat_truck_0.3" vType="truck" speedFactor="0.93" vaporized=""/>
    <tripinfo id="flow_Maabilah_bus_0.7" depart="60.00" departLane="20910676#0_0" departPos="12.10" departSpeed="0.00" departDelay="34.29" arrival="62.00" arrivalLane="20910676#0_0" arrivalPos="14.03" arrivalSpeed="1.39" duration="2.00" routeLength="1.93" waitingTime="0.00" waitingCount="0" stopTime="0.00" timeLoss="1.86" rerouteNo="1" devices="tripinfo_flow_Maabilah_bus_0.7 routing_flow_Maabilah_bus_0.7" vType="bus" speedFactor="1.16" vaporized=""/>
    <tripinfo id="flow_Maabilah_bus_0.8" depart="63.00" departLane="20910676#0_0" departPos="12.10" departSpeed="0.00" departDelay="33.62" arrival="66.00" arrivalLane="20910676#0_0" arrivalPos="14.03" arrivalSpeed="2.26" duration="3.00" routeLength="1.93" waitingTime="0.00" waitingCount="0" stopTime="0.00" timeLoss="2.72" rerouteNo="1" devices="tripinfo_flow_Maabilah_bus_0.8 routing_flow_Maabilah_bus_0.8" vType="bus" speedFactor="1.01" vaporized=""/>
    <tripinfo id="flow_Muscat_truck_0.4" depart="54.00" departLane="20910676#0_0" departPos="14.03" departSpeed="0.00" departDelay="32.05" arrival="67.00" arrivalLane="20910676#1_1" arrivalPos="33.23" arrivalSpeed="8.29" duration="13.00" routeLength="54.36" waitingTime="0.00" waitingCount="0" stopTime="0.00" timeLoss="8.93" rerouteNo="0" devices="tripinfo_flow_Muscat_truck_0.4 routing_flow_Muscat_truck_0.4" vType="truck" speedFactor="0.94" vaporized=""/>
    <tripinfo id="flow_Muscat_truck_0.5" depart="62.00" departLane="20910676#0_0" departPos="14.03" departSpeed="0.00" departDelay="34.57" arrival="74.00" arrivalLane="20910676#1_1" arrivalPos="33.23" arrivalSpeed="8.84" duration="12.00" routeLength="54.36" waitingTime="0.00" waitingCount="0" stopTime="0.00" timeLoss="7.88" rerouteNo="0" devices="tripinfo_flow_Muscat_truck_0.5 routing_flow_Muscat_truck_0.5" vType="truck" speedFactor="1.02" vaporized=""/>
    <tripinfo id="flow_Maabilah_bus_0.9" depart="73.00" departLane="20910676#0_0" departPos="12.10" departSpeed="0.00" departDelay="39.94" arrival="75.00" arrivalLane="20910676#0_0" arrivalPos="14.03" arrivalSpeed="1.34" duration="2.00" routeLength="1.93" waitingTime="0.00" waitingCount="0" stopTime="0.00" timeLoss="1.86" rerouteNo="1" devices="tripinfo_flow_Maabilah_bus_0.9 routing_flow_Maabilah_bus_0.9" vType="bus" speedFactor="0.83" vaporized=""/>
    <tripinfo id="flow_Barka_rv_0.2" depart="66.00" departLane="20910676#0_0" departPos="6.10" departSpeed="0.00" departDelay="34.97" arrival="77.00" arrivalLane="20910676#1_1" arrivalPos="33.23" arrivalSpeed="11.58" duration="11.00" routeLength="62.29" waitingTime="0.00" waitingCount="0" stopTime="0.00" timeLoss="6.46" rerouteNo="0" devices="tripinfo_flow_Barka_rv_0.2 routing_flow_Barka_rv_0.2" vType="rv" speedFactor="0.97" vaporized=""/>
    <tripinfo id="flow_Maabilah_bus_0.10" depart="75.00" departLane="20910676#0_0" departPos="12.10" departSpeed="0.00" departDelay="38.27" arrival="77.00" arrivalLane="20910676#0_0" arrivalPos="14.03" arrivalSpeed="1.95" duration="2.00" routeLength="1.93" waitingTime="0.00" waitingCount="0" stopTime="0.00" timeLoss="1.80" rerouteNo="1" devices="tripinfo_flow_Maabilah_bus_0.10 routing_flow_Maabilah_bus_0.10" vType="bus" speedFactor="0.87" vaporized=""/>
    <tripinfo id="flow_Muscat_truck_0.6" depart="67.00" departLane="20910676#0_0" departPos="14.03" departSpeed="0.00" departDelay="34.08" arrival="83.00" arrivalLane="20910676#1_1" arrivalPos="33.23" arrivalSpeed="7.53" duration="16.00" routeLength="54.36" waitingTime="0.00" waitingCount="0" stopTime="0.00" timeLoss="11.67" rerouteNo="0" devices="tripinfo_flow_Muscat_truck_0.6 routing_flow_Muscat_truck_0.6" vType="truck" speedFactor="0.89" vaporized=""/>
    <tripinfo id="flow_Barka_rv_0.3" depart="72.00" departLane="20910676#0_0" departPos="6.10" departSpeed="0.00" departDelay="25.45" arrival="86.00" arrivalLane="20910676#1_1" arrivalPos="33.23" arrivalSpeed="9.68" duration="14.00" routeLength="62.29" waitingTime="0.00" waitingCount="0" stopTime="0.00" timeLoss="9.06" rerouteNo="0" devices="tripinfo_flow_Barka_rv_0.3 routing_flow_Barka_rv_0.3" vType="rv" speedFactor="1.15" vaporized=""/>
    <tripinfo id="flow_Maabilah_bus_0.11" depart="85.00" departLane="20910676#0_0" departPos="12.10" departSpeed="0.00" departDelay="44.60" arrival="87.00" arrivalLane="20910676#0_0" arrivalPos="14.03" arrivalSpeed="1.42" duration="2.00" routeLength="1.93" waitingTime="0.00" waitingCount="0" stopTime="0.00" timeLoss="1.85" rerouteNo="1" devices="tripinfo_flow_Maabilah_bus_0.11 routing_flow_Maabilah_bus_0.11" vType="bus" speedFactor="1.13" vaporized=""/>
    <tripinfo id="flow_Muscat_truck_0.7" depart="77.00" departLane="20910676#0_0" departPos="14.03" departSpeed="0.00" departDelay="38.59" arrival="90.00" arrivalLane="20910676#1_1" arrivalPos="33.23" arrivalSpeed="9.02" duration="13.00" routeLength="54.36" waitingTime="0.00" waitingCount="0" stopTime="0.00" timeLoss="8.87" rerouteNo="0" devices="tripinfo_flow_Muscat_truck_0.7 routing_flow_Muscat_truck_0.7" vType="truck" speedFactor="0.92" vaporized=""/>
    <tripinfo id="flow_Maabilah_bus_0.12" depart="91.00" departLane="20910676#0_0" departPos="12.10" departSpeed="0.00" departDelay="46.92" arrival="93.00" arrivalLane="20910676#0_0" arrivalPos="14.03" arrivalSpeed="1.94" duration="2.00" routeLength="1.93" waitingTime="0.00" waitingCount="0" stopTime="0.00" timeLoss="1.79" rerouteNo="1" devices="tripinfo_flow_Maabilah_bus_0.12 routing_flow_Maabilah_bus_0.12" vType="bus" speedFactor="1.18" vaporized=""/>
    <tripinfo id="flow_Barka_bus_0.1" depart="79.00" departLane="20910676#0_0" departPos="12.10" departSpeed="0.00" departDelay="39.87" arrival="95.00" arrivalLane="20910676#1_1" arrivalPos="33.23" arrivalSpeed="8.85" duration="16.00" routeLength="56.29" waitingTime="0.00" waitingCount="0" stopTime="0.00" timeLoss="11.76" rerouteNo="0" devices="tripinfo_flow_Barka_bus_0.1 routing_flow_Barka_bus_0.1" vType="bus" speedFactor="0.95" vaporized=""/>
    <tripinfo id="flow_Maabilah_bus_0.13" depart="93.00" departLane="20910676#0_0" departPos="12.10" departSpeed="0.00" departDelay="45.25" arrival="95.00" arrivalLane="20910676#0_0" arrivalPos="14.03" arrivalSpeed="1.28" duration="2.00" routeLength="1.93" waitingTime="0.00" waitingCount="0" stopTime="0.00" timeLoss="1.86" rerouteNo="1" devices="tripinfo_flow_Maabilah_bus_0.13 routing_flow_Maabilah_bus_0.13" vType="bus" speedFactor="1.01" vaporized=""/>
    <tripinfo id="flow_Maabilah_bus_0.14" depart="96.00" departLane="20910676#0_0" departPos="12.10" departSpeed="0.00" departDelay="44.58" arrival="98.00" arrivalLane="20910676#0_0" arrivalPos="14.03" arrivalSpeed="1.71" duration="2.00" routeLength="1.93" waitingTime="0.00" waitingCount="0" stopTime="0.00" timeLoss="1.82" rerouteNo="1" devices="tripinfo_flow_Maabilah_bus_0.14 routing_flow_Maabilah_bus_0.14" vType="bus" speedFactor="0.99" vaporized=""/>
    <tripinfo id="flow_Muscat_truck_0.8" depart="87.00" departLane="20910676#0_0" departPos="14.03" departSpeed="0.00" departDelay="43.10" arrival="101.00" arrivalLane="20910676#1_1" arrivalPos="33.23" arrivalSpeed="8.48" duration="14.00" routeLength="54.36" waitingTime="0.00" waitingCount="0" stopTime="0.00" timeLoss="9.71" rerouteNo="0" devices="tripinfo_flow_Muscat_truck_0.8 routing_flow_Muscat_truck_0.8" vType="truck" speedFactor="0.93" vaporized=""/>
    <tripinfo id="flow_Maabilah_bus_0.15" depart="103.00" departLane="20910676#0_0" departPos="12.10" departSpeed="0.00" departDelay="47.91" arrival="105.00" arrivalLane="20910676#0_0" arrivalPos="14.03" arrivalSpeed="1.47" duration="2.00" routeLength="1.93" waitingTime="0.00" waitingCount="0" stopTime="0.00" timeLoss="1.83" rerouteNo="1" devices="tripinfo_flow_Maabilah_bus_0.15 routing_flow_Maabilah_bus_0.15" vType="bus" speedFactor="0.97" vaporized=""/>
    <tripinfo id="flow_Maabilah_bus_0.16" depart="105.00" departLane="20910676#0_0" departPos="12.10" departSpeed="0.00" departDelay="46.23" arrival="107.00" arrivalLane="20910676#0_0" arrivalPos="14.03" arrivalSpeed="2.12" duration="2.00" routeLength="1.93" waitingTime="0.00" waitingCount="0" stopTime="0.00" timeLoss="1.77" rerouteNo="1" devices="tripinfo_flow_Maabilah_bus_0.16 routing_flow_Maabilah_bus_0.16" vType="bus" speedFactor="1.18" vaporized=""/>
    <tripinfo id="flow_Muscat_truck_0.9" depart="95.00" departLane="20910676#0_0" departPos="14.03" departSpeed="0.00" departDelay="45.62" arrival="108.00" arrivalLane="20910676#1_1" arrivalPos="33.23" arrivalSpeed="8.21" duration="13.00" routeLength="54.36" waitingTime="0.00" waitingCount="0" stopTime="0.00" timeLoss="9.01" rerouteNo="0" devices="tripinfo_flow_Muscat_truck_0.9 routing_flow_Muscat_truck_0.9" vType="truck" speedFactor="1.17" vaporized=""/>
    <tripinfo id="flow_Muscat_truck_0.10" depart="98.00" departLane="20910676#0_0" departPos="14.03" departSpeed="0.00" departDelay="43.13" arrival="114.00" arrivalLane="20910676#1_1" arrivalPos="33.23" arrivalSpeed="8.45" duration="16.00" routeLength="54.36" waitingTime="0.00" waitingCount="0" stopTime="0.00" timeLoss="11.62" rerouteNo="0" devices="tripinfo_flow_Muscat_truck_0.10 routing_flow_Muscat_truck_0.10" vType="truck" speedFactor="1.02" vaporized=""/>
    <tripinfo id="flow_Maabilah_bus_0.17" depart="113.00" departLane="20910676#0_0" departPos="12.10" departSpeed="0.00" departDelay="50.56" arrival="115.00" arrivalLane="20910676#0_0" arrivalPos="14.03" arrivalSpeed="1.98" duration="2.00" routeLength="1.93" waitingTime="0.00" waitingCount="0" stopTime="0.00" timeLoss="1.79" rerouteNo="1" devices="tripinfo_flow_Maabilah_bus_0.17 routing_flow_Maabilah_bus_0.17" vType="bus" speedFactor="1.03" vaporized=""/>
    <tripinfo id="flow_Muscat_truck_0.11" depart="107.00" departLane="20910676#0_0" departPos="14.03" departSpeed="0.00" departDelay="46.64" arrival="120.00" arrivalLane="20910676#1_1" arrivalPos="33.23" arrivalSpeed="9.05" duration="13.00" routeLength="54.36" waitingTime="0.00" waitingCount="0" stopTime="0.00" timeLoss="8.57" rerouteNo="0" devices="tripinfo_flow_Muscat_truck_0.11 routing_flow_Muscat_truck_0.11" vType="truck" speedFactor="1.10" vaporized=""/>
    <tripinfo id="flow_Maabilah_bus_0.18" depart="118.00" departLane="20910676#0_0" departPos="12.10" departSpeed="0.00" departDelay="51.89" arrival="120.00" arrivalLane="20910676#0_0" arrivalPos="14.03" arrivalSpeed="1.68" duration="2.00" routeLength="1.93" waitingTime="0.00" waitingCount="0" stopTime="0.00" timeLoss="1.84" rerouteNo="1" devices="tripinfo_flow_Maabilah_bus_0.18 routing_flow_Maabilah_bus_0.18" vType="bus" speedFactor="1.09" vaporized=""/>
    <tripinfo id="flow_Barka_rv_0.4" depart="109.00" departLane="20910676#0_0" departPos="6.10" departSpeed="0.00" departDelay="46.93" arrival="122.00" arrivalLane="20910676#1_1" arrivalPos="33.23" arrivalSpeed="10.94" duration="13.00" routeLength="62.29" waitingTime="0.00" waitingCount="0" stopTime="0.00" timeLoss="8.51" rerouteNo="0" devices="tripinfo_flow_Barka_rv_0.4 routing_flow_Barka_rv_0.4" vType="rv" speedFactor="0.90" vaporized=""/>
    <tripinfo id="flow_Maabilah_bus_0.19" depart="120.00" departLane="20910676#0_0" departPos="12.10" departSpeed="0.00" departDelay="50.21" arrival="122.00" arrivalLane="20910676#0_0" arrivalPos="14.03" arrivalSpeed="2.10" duration="2.00" routeLength="1.93" waitingTime="0.00" waitingCount="0" stopTime="0.00" timeLoss="1.77" rerouteNo="1" devices="tripinfo_flow_Maabilah_bus_0.19 routing_flow_Maabilah_bus_0.19" vType="bus" speedFactor="1.04" vaporized=""/>
    <tripinfo id="flow_Maabilah_bus_0.20" depart="124.00" departLane="20910676#0_0" departPos="12.10" departSpeed="0.00" departDelay="50.54" arrival="126.00" arrivalLane="20910676#0_0" arrivalPos="14.03" arrivalSpeed="2.26" duration="2.00" routeLength="1.93" waitingTime="0.00" waitingCount="0" stopTime="0.00" timeLoss="1.76" rerouteNo="1" devices="tripinfo_flow_Maabilah_bus_0.20 routing_flow_Maabilah_bus_0.20" vType="bus" speedFactor="1.09" vaporized=""/>
    <tripinfo id="flow_Muscat_truck_0.12" depart="115.00" departLane="20910676#0_0" departPos="14.03" departSpeed="0.00" departDelay="49.16" arrival="129.00" arrivalLane="20910676#1_1" arrivalPos="33.23" arrivalSpeed="8.39" duration="14.00" routeLength="54.36" waitingTime="0.00" waitingCount="0" stopTime="0.00" timeLoss="9.85" rerouteNo="0" devices="tripinfo_flow_Muscat_truck_0.12 routing_flow_Muscat_truck_0.12" vType="truck" speedFactor="0.96" vaporized=""/>
    <tripinfo id="flow_Muscat_truck_0.13" depart="122.00" departLane="20910676#0_0" departPos="14.03" departSpeed="0.00" departDelay="50.67" arrival="134.00" arrivalLane="20910676#1_1" arrivalPos="33.23" arrivalSpeed="8.60" duration="12.00" routeLength="54.36" waitingTime="0.00" waitingCount="0" stopTime="0.00" timeLoss="7.89" rerouteNo="0" devices="tripinfo_flow_Muscat_truck_0.13 routing_flow_Muscat_truck_0.13" vType="truck" speedFactor="1.04" vaporized=""/>
    <tripinfo id="flow_Maabilah_bus_0.21" depart="134.00" departLane="20910676#0_0" departPos="12.10" departSpeed="0.00" departDelay="56.87" arrival="136.00" arrivalLane="20910676#0_0" arrivalPos="14.03" arrivalSpeed="1.95" duration="2.00" routeLength="1.93" waitingTime="0.00" waitingCount="0" stopTime="0.00" timeLoss="1.79" rerouteNo="1" devices="tripinfo_flow_Maabilah_bus_0.21 routing_flow_Maabilah_bus_0.21" vType="bus" speedFactor="0.88" vaporized=""/>
    <tripinfo id="flow_Maabilah_bus_0.22" depart="138.00" departLane="20910676#0_0" departPos="12.10" departSpeed="0.00" departDelay="57.19" arrival="140.00" arrivalLane="20910676#0_0" arrivalPos="14.03" arrivalSpeed="1.55" duration="2.00" routeLength="1.93" waitingTime="0.00" waitingCount="0" stopTime="0.00" timeLoss="1.81" rerouteNo="1" devices="tripinfo_flow_Maabilah_bus_0.22 routing_flow_Maabilah_bus_0.22" vType="bus" speedFactor="0.85" vaporized=""/>
    <tripinfo id="flow_Muscat_truck_0.14" depart="126.00" departLane="20910676#0_0" departPos="14.03" departSpeed="0.00" departDelay="49.18" arrival="141.00" arrivalLane="20910676#1_1" arrivalPos="33.23" arrivalSpeed="8.87" duration="15.00" routeLength="54.36" waitingTime="0.00" waitingCount="0" stopTime="0.00" timeLoss="10.53" rerouteNo="0" devices="tripinfo_flow_Muscat_truck_0.14 routing_flow_Muscat_truck_0.14" vType="truck" speedFactor="1.00" vaporized=""/>
    <tripinfo id="flow_Barka_rv_0.5" depart="130.00" departLane="20910676#0_0" departPos="6.10" departSpeed="0.00" departDelay="52.42" arrival="143.00" arrivalLane="20910676#1_1" arrivalPos="33.23" arrivalSpeed="10.45" duration="13.00" routeLength="62.29" waitingTime="0.00" waitingCount="0" stopTime="0.00" timeLoss="8.52" rerouteNo="0" devices="tripinfo_flow_Barka_rv_0.5 routing_flow_Barka_rv_0.5" vType="rv" speedFactor="0.90" vaporized=""/>
    <tripinfo id="flow_Maabilah_bus_0.23" depart="144.00" departLane="20910676#0_0" departPos="12.10" departSpeed="0.00" departDelay="59.52" arrival="146.00" arrivalLane="20910676#0_0" arrivalPos="14.03" arrivalSpeed="1.79" duration="2.00" routeLength="1.93" waitingTime="0.00" waitingCount="0" stopTime="0.00" timeLoss="1.79" rerouteNo="1" devices="tripinfo_flow_Maabilah_bus_0.23 routing_flow_Maabilah_bus_0.23" vType="bus" speedFactor="1.02" vaporized=""/>
    <tripinfo id="flow_Barka_bus_0.2" depart="136.00" departLane="20910676#0_0" departPos="12.10" departSpeed="0.00" departDelay="57.74" arrival="148.00" arrivalLane="20910676#1_1" arrivalPos="33.23" arrivalSpeed="8.96" duration="12.00" routeLength="56.29" waitingTime="0.00" waitingCount="0" stopTime="0.00" timeLoss="7.95" rerouteNo="0" devices="tripinfo_flow_Barka_bus_0.2 routing_flow_Barka_bus_0.2" vType="bus" speedFactor="0.85" vaporized=""/>
    <tripinfo id="flow_Maabilah_bus_0.24" depart="150.00" departLane="20910676#0_0" departPos="12.10" departSpeed="0.00" departDelay="61.85" arrival="152.00" arrivalLane="20910676#0_0" arrivalPos="14.03" arrivalSpeed="1.44" duration="2.00" routeLength="1.93" waitingTime="0.00" waitingCount="0" stopTime="0.00" timeLoss="1.83" rerouteNo="1" devices="tripinfo_flow_Maabilah_bus_0.24 routing_flow_Maabilah_bus_0.24" vType="bus" speedFactor="1.00" vaporized=""/>
    <tripinfo id="flow_Maabilah_bus_0.25" depart="152.00" departLane="20910676#0_0" departPos="12.10" departSpeed="0.00" departDelay="60.18" arrival="154.00" arrivalLane="20910676#0_0" arrivalPos="14.03" arrivalSpeed="1.46" duration="2.00" routeLength="1.93" waitingTime="0.00" waitingCount="0" stopTime="0.00" timeLoss="1.85" rerouteNo="1" devices="tripinfo_flow_Maabilah_bus_0.25 routing_flow_Maabilah_bus_0.25" vType="bus" speedFactor="1.00" vaporized=""/>
    <tripinfo id="flow_Muscat_truck_0.15" depart="140.00" departLane="20910676#0_0" departPos="14.03" departSpeed="0.00" departDelay="57.70" arrival="155.00" arrivalLane="20910676#1_1" arrivalPos="33.23" arrivalSpeed="8.50" duration="15.00" routeLength="54.36" waitingTime="0.00" waitingCount="0" stopTime="0.00" timeLoss="10.78" rerouteNo="0" devices="tripinfo_flow_Muscat_truck_0.15 routing_flow_Muscat_truck_0.15" vType="truck" speedFactor="1.17" vaporized=""/>
    <tripinfo id="flow_Muscat_truck_0.16" depart="146.00" departLane="20910676#0_0" departPos="14.03" departSpeed="0.00" departDelay="58.21" arrival="160.00" arrivalLane="20910676#1_1" arrivalPos="33.23" arrivalSpeed="8.42" duration="14.00" routeLength="54.36" waitingTime="0.00" waitingCount="0" stopTime="0.00" timeLoss="9.63" rerouteNo="0" devices="tripinfo_flow_Muscat_truck_0.16 routing_flow_Muscat_truck_0.16" vType="truck" speedFactor="1.10" vaporized=""/>
    <tripinfo id="flow_Maabilah_bus_0.26" depart="160.00" departLane="20910676#0_0" departPos="12.10" departSpeed="0.00" departDelay="64.50" arrival="162.00" arrivalLane="20910676#0_0" arrivalPos="14.03" arrivalSpeed="1.72" duration="2.00" routeLength="1.93" waitingTime="0.00" waitingCount="0" stopTime="0.00" timeLoss="1.80" rerouteNo="1" devices="tripinfo_flow_Maabilah_bus_0.26 routing_flow_Maabilah_bus_0.26" vType="bus" speedFactor="1.02" vaporized=""/>
    <tripinfo id="flow_Muscat_truck_0.17" depart="154.00" departLane="20910676#0_0" departPos="14.03" departSpeed="0.00" departDelay="60.72" arrival="166.00" arrivalLane="20910676#1_1" arrivalPos="33.23" arrivalSpeed="8.41" duration="12.00" routeLength="54.36" waitingTime="0.00" waitingCount="0" stopTime="0.00" timeLoss="8.04" rerouteNo="0" devices="tripinfo_flow_Muscat_truck_0.17 routing_flow_Muscat_truck_0.17" vType="truck" speedFactor="0.90" vaporized=""/>
    <tripinfo id="flow_Maabilah_bus_0.27" depart="165.00" departLane="20910676#0_0" departPos="12.10" departSpeed="0.00" departDelay="65.83" arrival="167.00" arrivalLane="20910676#0_0" arrivalPos="14.03" arrivalSpeed="1.46" duration="2.00" routeLength="1.93" waitingTime="0.00" waitingCount="0" stopTime="0.00" timeLoss="1.84" rerouteNo="1" devices="tripinfo_flow_Maabilah_bus_0.27 routing_flow_Maabilah_bus_0.27" vType="bus" speedFactor="1.08" vaporized=""/>
    <tripinfo id="flow_Maabilah_bus_0.28" depart="167.00" departLane="20910676#0_0" departPos="12.10" departSpeed="0.00" departDelay="64.16" arrival="169.00" arrivalLane="20910676#0_0" arrivalPos="14.03" arrivalSpeed="1.70" duration="2.00" routeLength="1.93" waitingTime="0.00" waitingCount="0" stopTime="0.00" timeLoss="1.81" rerouteNo="1" devices="tripinfo_flow_Maabilah_bus_0.28 routing_flow_Maabilah_bus_0.28" vType="bus" speedFactor="1.12" vaporized=""/>
    <tripinfo id="flow_Barka_rv_0.6" depart="155.00" departLane="20910676#0_0" departPos="6.10" departSpeed="0.00" departDelay="61.90" arrival="170.00" arrivalLane="20910676#1_1" arrivalPos="33.23" arrivalSpeed="10.67" duration="15.00" routeLength="62.29" waitingTime="0.00" waitingCount="0" stopTime="0.00" timeLoss="10.36" rerouteNo="0" devices="tripinfo_flow_Barka_rv_0.6 routing_flow_Barka_rv_0.6" vType="rv" speedFactor="1.14" vaporized=""/>
    <tripinfo id="flow_Maabilah_bus_0.29" depart="171.00" departLane="20910676#0_0" departPos="12.10" departSpeed="0.00" departDelay="64.48" arrival="173.00" arrivalLane="20910676#0_0" arrivalPos="14.03" arrivalSpeed="1.60" duration="2.00" routeLength="1.93" waitingTime="0.00" waitingCount="0" stopTime="0.00" timeLoss="1.85" rerouteNo="1" devices="tripinfo_flow_Maabilah_bus_0.29 routing_flow_Maabilah_bus_0.29" vType="bus" speedFactor="0.99" vaporized=""/>